#     Step Nr.          Time[fs]        Kin.[a.u.]          Temp[K]            Pot.[a.u.]        Cons Qty[a.u.]        UsedTime[s]
         0            0.000000         0.436288508       300.150000000    -13079.992972499    -13079.556208731         0.000000000
         1            1.000000         0.415255592       285.680149127    -13079.972365725    -13079.555381109       176.231446080
         2            2.000000         0.368478258       253.499111583    -13079.924501195    -13079.553224997        62.495609993
         3            3.000000         0.326812703       224.834785094    -13079.881990064    -13079.551644465        52.310568299
         4            4.000000         0.312515719       214.999000399    -13079.868485363    -13079.552076104        52.448467900
         5            5.000000         0.320688864       220.621815060    -13079.878239788    -13079.553657650        62.949219584
         6            6.000000         0.329246638       226.509240086    -13079.887551644    -13079.554761212        62.728485374
         7            7.000000         0.320861392       220.740508078    -13079.878549923    -13079.554825105        63.208079944
         8            8.000000         0.293389426       201.840834060    -13079.849327114    -13079.554056522        62.911348826
         9            9.000000         0.258288094       177.692444593    -13079.811756647    -13079.552843469        62.684695122
        10           10.000000         0.233853865       160.882618704    -13079.784816013    -13079.551868171        62.814710480
        11           11.000000         0.234175683       161.104017341    -13079.783364170    -13079.551984902        52.428521503
        12           12.000000         0.257328064       177.031979739    -13079.805473047    -13079.553351021        52.582906811
        13           13.000000         0.283731178       195.196324330    -13079.830518856    -13079.554991337        62.985705465
        14           14.000000         0.289950800       199.475189034    -13079.833893304    -13079.555528240        62.694888603
        15           15.000000         0.268423483       184.665208548    -13079.807809230    -13079.554338195        62.702579367
        16           16.000000         0.235718485       162.165406362    -13079.770154430    -13079.552439202        62.723354520
        17           17.000000         0.217947869       149.939894596    -13079.748950086    -13079.551736707        62.826005261
        18           18.000000         0.225460897       155.108573541    -13079.754813784    -13079.552709072        62.741670784
        19           19.000000         0.245452237       168.861859664    -13079.773446094    -13079.554032455        62.761787420
        20           20.000000         0.258276229       177.684281879    -13079.784029900    -13079.554517421        63.583507640
        21           21.000000         0.254996777       175.428142749    -13079.777628053    -13079.554038690        62.960633012
        22           22.000000         0.241389530       166.066871062    -13079.760548622    -13079.553053849        62.790508487
        23           23.000000         0.231696034       159.398112433    -13079.747625526    -13079.552203195        62.964054481
        24           24.000000         0.238494577       164.075252759    -13079.751883555    -13079.552092504        62.644469880
        25           25.000000         0.263416530       181.220614340    -13079.774964042    -13079.552930076        62.756164656
        26           26.000000         0.294223948       202.414953209    -13079.804042888    -13079.554240873        59.411283094
        27           27.000000         0.312095012       214.709569755    -13079.819371405    -13079.555021953        59.277066330
        28           28.000000         0.306140061       210.612788657    -13079.809515667    -13079.554511830        62.811557691
        29           29.000000         0.283621454       195.120838540    -13079.782323870    -13079.553109734        62.742272609
        30           30.000000         0.263990171       181.615257686    -13079.758625427    -13079.552174685        62.642349564
        31           31.000000         0.260470406       179.193792209    -13079.752320734    -13079.552522878        62.666629974
        32           32.000000         0.268749955       184.889809448    -13079.758320732    -13079.553537778        62.573982420
        33           33.000000         0.274273730       188.689957299    -13079.760941116    -13079.554117633        55.818912645
        34           34.000000         0.267343996       183.922562848    -13079.750192645    -13079.553848111        52.410866296
        35           35.000000         0.250407333       172.270778477    -13079.728964784    -13079.553021710        55.797786693
        36           36.000000         0.234784165       161.522630001    -13079.709205346    -13079.552218583        52.465252550
        37           37.000000         0.232194179       159.740817015    -13079.703040622    -13079.551947150        52.463613956
        38           38.000000         0.246790139       169.782285997    -13079.714631286    -13079.552411148        55.750796243
        39           39.000000         0.271772793       186.969407665    -13079.736809849    -13079.553398071        52.351428945
        40           40.000000         0.292711628       201.374534383    -13079.754517497    -13079.554263203        59.168479737
        41           41.000000         0.297264650       204.506841031    -13079.754880575    -13079.554278503        62.625939975
        42           42.000000         0.285092279       196.132710333    -13079.737802256    -13079.553454751        62.682392238
        43           43.000000         0.267711139       184.175143260    -13079.715676685    -13079.552565596        62.697610291
        44           44.000000         0.257830792       177.377838025    -13079.701839746    -13079.552305641        62.518698454
        45           45.000000         0.258616055       177.918068741    -13079.699466846    -13079.552837746        55.902864311
        46           46.000000         0.262429170       180.541347803    -13079.700113300    -13079.553450526        52.368948989
        47           47.000000         0.259721551       178.678608327    -13079.693629104    -13079.553506928        55.988472473
        48           48.000000         0.248315872       170.831932499    -13079.677907747    -13079.552966533        56.018139417
        49           49.000000         0.234826132       161.551501354    -13079.660065666    -13079.552264559        59.395245899
        50           50.000000         0.228802322       157.407347749    -13079.650117757    -13079.551917127        62.960521922
        51           51.000000         0.235297560       161.875826119    -13079.653159654    -13079.552115774        62.872414452
        52           52.000000         0.251624110       173.107875205    -13079.666156186    -13079.552664058        62.868529442
        53           53.000000         0.269866299       185.657811681    -13079.680739584    -13079.553162681        62.828880566
        54           54.000000         0.282630151       194.438859432    -13079.689275932    -13079.553301056        62.887590740
        55           55.000000         0.287373387       197.702026325    -13079.689432354    -13079.553157912        62.872705244
        56           56.000000         0.285903850       196.691040544    -13079.683309125    -13079.552917500        63.055342413
        57           57.000000         0.281822471       193.883205991    -13079.674630656    -13079.552656829        55.939509015
        58           58.000000         0.278623711       191.682580048    -13079.667074350    -13079.552570983        52.570922785
        59           59.000000         0.277480750       190.896265844    -13079.661800959    -13079.552688273        56.434991973
        60           60.000000         0.276146255       189.978183933    -13079.656398636    -13079.552867824        62.867322740
        61           61.000000         0.271756361       186.958103136    -13079.647626807    -13079.552714428        56.127601514
        62           62.000000         0.265870773       182.909041067    -13079.637051869    -13079.552208727        52.514538695
        63           63.000000         0.264545237       181.997122367    -13079.631226381    -13079.551879282        52.411664043
        64           64.000000         0.271781616       186.975477214    -13079.634394376    -13079.552067578        56.031189958
        65           65.000000         0.285002962       196.071263273    -13079.643601195    -13079.552489999        55.995527526
        66           66.000000         0.298477943       205.341540909    -13079.652588105    -13079.552635627        62.823790886
        67           67.000000         0.309802681       213.132532732    -13079.658972443    -13079.552478341        62.640897879
        68           68.000000         0.320317824       220.366553882    -13079.664606767    -13079.552482928        55.890034297
        69           69.000000         0.330036222       227.052444104    -13079.669539230    -13079.552655029        55.832017723
        70           70.000000         0.336545586       231.530640664    -13079.671196325    -13079.552792104        55.983522088
        71           71.000000         0.337341372       232.078110770    -13079.667046405    -13079.552801959        56.255667557
        72           72.000000         0.331901466       228.335661507    -13079.656489220    -13079.552538317        62.950541125
        73           73.000000         0.323151025       222.315688477    -13079.642674468    -13079.552191211        62.694986421
        74           74.000000         0.315257503       216.885243865    -13079.630011097    -13079.552021334        62.880914248
        75           75.000000         0.310713358       213.759044251    -13079.620801803    -13079.551895554        55.919086567
        76           76.000000         0.310949504       213.921503635    -13079.616413159    -13079.551819386        56.473844586
        77           77.000000         0.316145536       217.496176923    -13079.617133285    -13079.551967835        62.792704790
        78           78.000000         0.323854243       222.799476424    -13079.620293836    -13079.552156934        62.890893421
        79           79.000000         0.331418923       228.003690070    -13079.622940669    -13079.552083038        62.903724629
        80           80.000000         0.339250427       233.391468690    -13079.625723160    -13079.551963308        63.122734684
        81           81.000000         0.348266469       239.594164938    -13079.629892102    -13079.552120748        63.008030875
        82           82.000000         0.356641685       245.355997040    -13079.633284788    -13079.552201142        63.077916054
        83           83.000000         0.362766563       249.569681441    -13079.634278008    -13079.552153744        70.058951562
        84           84.000000         0.366127170       251.881651704    -13079.632679036    -13079.552257560        70.143037062
        85           85.000000         0.364939890       251.064848242    -13079.626569882    -13079.552332522        70.084721053
        86           86.000000         0.357803726       246.155436952    -13079.614400429    -13079.552178535        63.174567853
        87           87.000000         0.346520474       238.392986096    -13079.597989850    -13079.551781165        63.101690344
        88           88.000000         0.336319885       231.375366875    -13079.582752164    -13079.551345275        63.140300439
        89           89.000000         0.332587215       228.807430526    -13079.574403884    -13079.551282208        56.066271316
        90           90.000000         0.335739360       230.975987426    -13079.573305833    -13079.551633010        63.185501450
        91           91.000000         0.341024256       234.611796199    -13079.574121793    -13079.551861873        69.958894935
        92           92.000000         0.345246403       237.516473692    -13079.573304887    -13079.551604751        69.999473892
        93           93.000000         0.350639069       241.226423719    -13079.573681792    -13079.551438395        70.049821330
        94           94.000000         0.358655003       246.741083408    -13079.577029224    -13079.551694332        69.880869981
        95           95.000000         0.366413985       252.078969994    -13079.579846080    -13079.551744659        62.936297491
        96           96.000000         0.372954220       256.578404072    -13079.581063372    -13079.551450941        62.711850364
        97           97.000000         0.381073512       262.164169981    -13079.584054387    -13079.551374633        62.831524987
        98           98.000000         0.391090858       269.055725609    -13079.589276076    -13079.551657428        62.816752604
        99           99.000000         0.398719257       274.303775856    -13079.592070513    -13079.551902148        63.046764130
       100          100.000000         0.399634491       274.933421636    -13079.587966314    -13079.551891317        63.455919598
       101          101.000000         0.393645614       270.813301093    -13079.576708516    -13079.551489710        62.916454723
       102          102.000000         0.386123308       265.638238672    -13079.563957181    -13079.550971879        62.587504008
       103          103.000000         0.383890415       264.102092891    -13079.557009707    -13079.550872157        62.693741426
       104          104.000000         0.388902038       267.549900152    -13079.557601263    -13079.551060609        62.751974648
       105          105.000000         0.399086811       274.556638677    -13079.563205880    -13079.551144265        69.784668186
       106          106.000000         0.412050158       283.474931819    -13079.571676112    -13079.551384550        69.665431720
       107          107.000000         0.423327452       291.233283607    -13079.578561539    -13079.551759205        69.693343271
       108          108.000000         0.427711656       294.249450067    -13079.578107949    -13079.551637877        70.279437582
       109          109.000000         0.426276142       293.261870669    -13079.571498110    -13079.551053300        62.823257010
       110          110.000000         0.426029592       293.092253547    -13079.566464132    -13079.550720402        63.047942593
       111          111.000000         0.431123525       296.596687280    -13079.567405614    -13079.550933135        62.916986404
       112          112.000000         0.438686264       301.799565237    -13079.570992890    -13079.551264414        62.862779243
       113          113.000000         0.443240865       304.932958752    -13079.571527650    -13079.551471170        62.780945751
       114          114.000000         0.441016741       303.402845858    -13079.565210034    -13079.551470762        62.769059244
       115          115.000000         0.431662495       296.967477701    -13079.551720005    -13079.551252245        62.935537135
       116          116.000000         0.418362446       287.817546881    -13079.534341387    -13079.550914396        62.760163409
       117          117.000000         0.406525047       279.673864055    -13079.518506627    -13079.550528553        62.675848876
       118          118.000000         0.402128611       276.649282299    -13079.510286611    -13079.550271447        62.679133096
       119          119.000000         0.408118661       280.770210451    -13079.512991105    -13079.550600519        62.961174339
       120          120.000000         0.419247139       288.426182318    -13079.521158553    -13079.551350386        62.774212677
       121          121.000000         0.424943511       292.345071228    -13079.523408046    -13079.551670952        62.799820921
       122          122.000000         0.420118881       289.025908175    -13079.514420360    -13079.551241284        62.793515776
       123          123.000000         0.410188180       282.193961122    -13079.500090377    -13079.550490131        62.635714614
       124          124.000000         0.405030993       278.646011228    -13079.491074106    -13079.550226712        62.713161088
       125          125.000000         0.408121939       280.772465024    -13079.490998699    -13079.550677972        55.885887048
       126          126.000000         0.413671395       284.590281113    -13079.493269583    -13079.551076304        62.724740752
       127          127.000000         0.415805772       286.058651794    -13079.491506825    -13079.550891714        62.935981749
       128          128.000000         0.415294070       285.706620320    -13079.487056490    -13079.550664988        62.898183616
       129          129.000000         0.413867795       284.725396918    -13079.482206409    -13079.550937605        69.870997703
       130          130.000000         0.408607057       281.106208085    -13079.473271143    -13079.550929796        63.193047157
       131          131.000000         0.399644773       274.940495785    -13079.459906811    -13079.550150348        69.705112796
       132          132.000000         0.396572350       272.826784418    -13079.452669962    -13079.549600736        69.708430430
       133          133.000000         0.405756787       279.145329967    -13079.458731825    -13079.550172808        69.802291365
       134          134.000000         0.420148715       289.046432696    -13079.470010103    -13079.550880683        69.749359936
       135          135.000000         0.429612182       295.556939956    -13079.475653734    -13079.550958468        69.783348144
       136          136.000000         0.432015789       297.210530903    -13079.473763534    -13079.550546788        69.666796190
       137          137.000000         0.432785232       297.739878804    -13079.470238292    -13079.550069538        69.649526051
       138          138.000000         0.438093290       301.391621973    -13079.471811698    -13079.550098039        62.848563414
       139          139.000000         0.447096164       307.585259042    -13079.477628913    -13079.550639201        62.804174336
       140          140.000000         0.452947607       311.610830468    -13079.479895332    -13079.550716714        55.776934503
       141          141.000000         0.453691377       312.122516177    -13079.476638267    -13079.550261863        52.576651504
       142          142.000000         0.453360917       311.895171869    -13079.472876331    -13079.550237269        55.855073777
       143          143.000000         0.452356567       311.204216924    -13079.468830707    -13079.550466298        55.822023898
       144          144.000000         0.448967323       308.872545347    -13079.461960642    -13079.550121134        55.723296305
       145          145.000000         0.447179456       307.642560585    -13079.456779322    -13079.549745093        55.702733026
       146          146.000000         0.451483591       310.603642590    -13079.458296306    -13079.549893330        59.240258435
       147          147.000000         0.460347896       316.701949342    -13079.464548860    -13079.550155259        59.356341223
       148          148.000000         0.469871714       323.253975852    -13079.471409539    -13079.550285450        59.400618145
       149          149.000000         0.477587169       328.561917241    -13079.476530449    -13079.550359834        62.710397090
       150          150.000000         0.482470690       331.921595236    -13079.478867856    -13079.550311434        62.712143023
       151          151.000000         0.485785279       334.201907178    -13079.479610809    -13079.550033233        62.695352358
       152          152.000000         0.490489460       337.438205836    -13079.482360390    -13079.550151936        62.679870449
       153          153.000000         0.495031023       340.562629641    -13079.485458013    -13079.550543653        62.631864609
       154          154.000000         0.495210965       340.686422703    -13079.483882792    -13079.550360160        62.755121123
       155          155.000000         0.492470837       338.801318300    -13079.479524493    -13079.550038728        62.547140529
       156          156.000000         0.490249112       337.272855305    -13079.476309725    -13079.550078710        56.394532368
       157          157.000000         0.488689731       336.200060650    -13079.473922897    -13079.550035281        62.737657491
       158          158.000000         0.487647283       335.482895587    -13079.472345307    -13079.550045362        69.678888271
       159          159.000000         0.485945239       334.311953872    -13079.470574706    -13079.550289897        62.697786905
       160          160.000000         0.481025172       330.927133873    -13079.465392681    -13079.550118740        59.211502452
       161          161.000000         0.475140802       326.878909346    -13079.459187334    -13079.549689753        62.718991552
       162          162.000000         0.473637339       325.844583533    -13079.458024600    -13079.549749196        62.701229233
       163          163.000000         0.476248936       327.641263643    -13079.461643570    -13079.550306920        62.510509463
       164          164.000000         0.477309140       328.370644279    -13079.463481918    -13079.550456346        62.492595686
       165          165.000000         0.475618073       327.207254131    -13079.462276262    -13079.550131883        62.693959014
       166          166.000000         0.474309347       326.306900180    -13079.462208115    -13079.550389472        62.874355706
       167          167.000000         0.471146109       324.130711687    -13079.460504563    -13079.550703013        63.521912471
       168          168.000000         0.462917760       318.469918943    -13079.453291437    -13079.550435923        62.693051675
       169          169.000000         0.453038930       311.673657066    -13079.444298652    -13079.549950874        62.727411416
       170          170.000000         0.448197233       308.342752462    -13079.440590731    -13079.549662052        62.775129685
       171          171.000000         0.451866693       310.867202050    -13079.445956393    -13079.549883082        62.667968276
       172          172.000000         0.459901475       316.394828947    -13079.456228121    -13079.550557815        62.932048820
       173          173.000000         0.463000504       318.526843669    -13079.461263959    -13079.550816145        62.944162777
       174          174.000000         0.457919824       315.031527341    -13079.457352978    -13079.550203544        62.773812036
       175          175.000000         0.452361319       311.207486136    -13079.453092107    -13079.549651536        62.871873582
       176          176.000000         0.453963932       312.310023263    -13079.456853520    -13079.549901565        62.988837812
       177          177.000000         0.461172241       317.269067350    -13079.466497961    -13079.550337767        69.718076235
       178          178.000000         0.469674641       323.118397645    -13079.477075712    -13079.550277635        69.691200602
       179          179.000000         0.479185464       329.661483736    -13079.489115736    -13079.550491457        69.617505474
       180          180.000000         0.485882680       334.268915305    -13079.499168248    -13079.551313416        69.847608798
       181          181.000000         0.480758751       330.743846058    -13079.496793780    -13079.551326299        69.900596131
       182          182.000000         0.464888865       319.825964300    -13079.482691258    -13079.550248443        62.904151792
       183          183.000000         0.452034572       310.982696832    -13079.472058176    -13079.549612525        62.920810211
       184          184.000000         0.450821516       310.148159857    -13079.474127005    -13079.550037835        63.244978589
       185          185.000000         0.456070645       313.759362400    -13079.482946606    -13079.550706539        62.824373423
       186          186.000000         0.457948066       315.050957216    -13079.488110813    -13079.551021751        62.898674306
       187          187.000000         0.451641347       310.712173110    -13079.484577108    -13079.550788104        62.911987423
       188          188.000000         0.440580357       303.102630083    -13079.475930539    -13079.550231201        66.302303571
       189          189.000000         0.432392293       297.469551033    -13079.470476515    -13079.550078613        69.830114126
       190          190.000000         0.429952971       295.791389888    -13079.471206989    -13079.550448615        69.778522595
       191          191.000000         0.430451027       296.134033770    -13079.474473805    -13079.550485363        69.954400972
       192          192.000000         0.433937317       298.532469782    -13079.480455257    -13079.550293710        69.794118794
       193          193.000000         0.441295706       303.594762730    -13079.491113812    -13079.550915281        63.088088864
       194          194.000000         0.445152711       306.248236520    -13079.498281496    -13079.551527429        62.863859208
       195          195.000000         0.438707436       301.814130812    -13079.494123786    -13079.551125566        63.080109350
       196          196.000000         0.427221267       293.912081155    -13079.484480875    -13079.550357687        63.039607468
       197          197.000000         0.420659194       289.397622844    -13079.480303732    -13079.550248404        70.625944151
       198          198.000000         0.420958018       289.603202740    -13079.483422543    -13079.550677536        69.946795902
       199          199.000000         0.422691041       290.795456699    -13079.487721647    -13079.550931070        69.704280961
       200          200.000000         0.421600943       290.045510345    -13079.488868672    -13079.550930736        69.794845925
       201          201.000000         0.417308304       287.092336960    -13079.486589660    -13079.550799548        62.883071065
       202          202.000000         0.412067191       283.486649322    -13079.483166389    -13079.550587532        62.683563379
       203          203.000000         0.409143509       281.475266727    -13079.482085019    -13079.550525729        62.748645384
       204          204.000000         0.409993140       282.059781166    -13079.484840658    -13079.550645917        62.765886419
       205          205.000000         0.413613821       284.550672613    -13079.490315403    -13079.550813320        62.819129881
       206          206.000000         0.417421730       287.170369928    -13079.496067876    -13079.551150973        69.739299618
       207          207.000000         0.417348808       287.120202277    -13079.497665493    -13079.551288166        69.838003949
       208          208.000000         0.412273662       283.628693609    -13079.493699373    -13079.550952970        69.578983985
       209          209.000000         0.406545580       279.687990216    -13079.489009464    -13079.550660421        69.688881425
       210          210.000000         0.404566814       278.326673421    -13079.488194021    -13079.550617871        69.623143220
       211          211.000000         0.406905013       279.935266120    -13079.491846385    -13079.550844217        69.732731153
       212          212.000000         0.409798878       281.926135921    -13079.496119900    -13079.551240326        62.707876240
       213          213.000000         0.408126423       280.775550472    -13079.495295001    -13079.551204989        62.620052180
       214          214.000000         0.402056966       276.599993231    -13079.489609498    -13079.550821295        69.596769587
       215          215.000000         0.396267540       272.617086675    -13079.484322035    -13079.550692326        69.579131778
       216          216.000000         0.393208811       270.512796806    -13079.481850849    -13079.550800130        69.555341781
       217          217.000000         0.392665387       270.138941570    -13079.481588332    -13079.550758394        62.718784141
       218          218.000000         0.395360838       271.993310440    -13079.484443018    -13079.550751415        62.714559905
       219          219.000000         0.400943790       275.834169873    -13079.490396453    -13079.551103497        62.944386071
       220          220.000000         0.405003647       278.627198229    -13079.494646012    -13079.551407421        69.652580122
       221          221.000000         0.403790485       277.792589060    -13079.493047376    -13079.551256784        70.131290909
       222          222.000000         0.398983084       274.485278248    -13079.487582714    -13079.550956170        69.842425739
       223          223.000000         0.394798626       271.606529533    -13079.482716731    -13079.550765828        69.851323806
       224          224.000000         0.394261592       271.237070643    -13079.481445447    -13079.550672075        69.635418795
       225          225.000000         0.397948789       273.773722423    -13079.484548841    -13079.550886244        69.638929802
       226          226.000000         0.402193135       276.693672184    -13079.488216080    -13079.551259509        63.245481556
       227          227.000000         0.401876130       276.475584975    -13079.486780057    -13079.551226847        52.453413833