#     Step Nr.          Time[fs]        Kin.[a.u.]          Temp[K]            Pot.[a.u.]        Cons Qty[a.u.]        UsedTime[s]
         0            0.000000         0.436288508       300.150000000    -13080.010807112    -13079.574043344         0.000000000
         1            1.000000         0.415050389       285.538977013    -13079.989996773    -13079.573217759       265.662902993
         2            2.000000         0.367979742       253.156151682    -13079.941836852    -13079.571061371        95.100940053
         3            3.000000         0.325955145       224.244817042    -13079.898959592    -13079.569477517        79.638063800
         4            4.000000         0.311293900       214.158435220    -13079.885079350    -13079.569903724        80.403156757
         5            5.000000         0.319167796       219.575377781    -13079.894523381    -13079.571482369        95.135581632
         6            6.000000         0.327552126       225.343479739    -13079.903647648    -13079.572583117        95.579872462
         7            7.000000         0.319155995       219.567259068    -13079.894619014    -13079.572645597        95.180834915
         8            8.000000         0.291850229       200.781924564    -13079.865543938    -13079.571875383        94.933867435
         9            9.000000         0.257089462       176.867830851    -13079.828300388    -13079.570666102        95.432625601
        10           10.000000         0.233086525       160.354717775    -13079.801786539    -13079.569703689        95.221635087
        11           11.000000         0.233753175       160.813347903    -13079.800667477    -13079.569826492        79.555878006
        12           12.000000         0.257093894       176.870879681    -13079.822926323    -13079.571173400        79.677408107
        13           13.000000         0.283794358       195.239789964    -13079.848214326    -13079.572777799        89.582934520
        14           14.000000         0.290904264       200.131135998    -13079.852444331    -13079.573299828        95.392022089
        15           15.000000         0.270991061       186.431605681    -13079.828005525    -13079.572165196        94.818444429
        16           16.000000         0.239783796       164.962187123    -13079.791926178    -13079.570374775        94.667182621
        17           17.000000         0.222015105       152.737999167    -13079.770712657    -13079.569690883        95.010594856
        18           18.000000         0.227878865       156.772044428    -13079.774789563    -13079.570538989        95.436327066
        19           19.000000         0.246126987       169.326062578    -13079.791603683    -13079.571779129        94.856175225
        20           20.000000         0.258321238       177.715245868    -13079.801615913    -13079.572304741        94.851130719
        21           21.000000         0.255202092       175.569391734    -13079.795446455    -13079.571885221        95.208858139
        22           22.000000         0.241698758       166.279608564    -13079.778502013    -13079.570926396        94.757719493
        23           23.000000         0.231517267       159.275127099    -13079.765106309    -13079.570088763        95.179139749
        24           24.000000         0.236968655       163.025476047    -13079.768023615    -13079.569976596        95.924762378
        25           25.000000         0.259751415       178.699154128    -13079.788939207    -13079.570767357        84.896016173
        26           26.000000         0.288373908       198.390347007    -13079.815777195    -13079.571986945        79.969457286
        27           27.000000         0.305361212       210.076970265    -13079.830173783    -13079.572681551        84.704510219
        28           28.000000         0.300968346       207.054844318    -13079.821908418    -13079.572177759        90.300257926
        29           29.000000         0.282128142       194.093496178    -13079.798552886    -13079.570943490        95.660200096
        30           30.000000         0.265812657       182.869059387    -13079.778341842    -13079.570221265        95.487752276
        31           31.000000         0.262527222       180.608804216    -13079.772184897    -13079.570531867        95.987254073
        32           32.000000         0.268540615       184.745790843    -13079.775619078    -13079.571272755        85.215148028
        33           33.000000         0.272873004       187.726311188    -13079.776914098    -13079.571716979        85.277759532
        34           34.000000         0.267885049       184.294786808    -13079.768234199    -13079.571575156        95.429405170
        35           35.000000         0.254608816       175.161239949    -13079.750812450    -13079.570927437        95.569508637
        36           36.000000         0.241747263       166.312977946    -13079.733798259    -13079.570175175        95.308796119
        37           37.000000         0.239332219       164.651518963    -13079.727731131    -13079.569903556        90.240820415
        38           38.000000         0.251357770       172.924643146    -13079.736595968    -13079.570263426        90.143158736
        39           39.000000         0.272471682       187.450216870    -13079.754745350    -13079.571090803        79.798357604
        40           40.000000         0.290547860       199.885943832    -13079.769523933    -13079.571847157        85.015405255
        41           41.000000         0.294903989       202.882795690    -13079.769743805    -13079.571865640        95.090101638
        42           42.000000         0.285163161       196.181474285    -13079.755235565    -13079.571158675        95.237145129
        43           43.000000         0.271002642       186.439572583    -13079.736501055    -13079.570461782        85.038208615
        44           44.000000         0.262388477       180.513353013    -13079.724031949    -13079.570352412        84.777994037
        45           45.000000         0.261114574       179.636955515    -13079.719484694    -13079.570806271        89.961160252
        46           46.000000         0.261461769       179.875812878    -13079.716380634    -13079.571129859        80.081872736
        47           47.000000         0.257876588       177.409344067    -13079.708889907    -13079.571025954        79.850518015
        48           48.000000         0.249882327       171.909594516    -13079.696806635    -13079.570705269        95.348207050
        49           49.000000         0.241303762       166.007865941    -13079.684116033    -13079.570297441        95.128157763
        50           50.000000         0.237502541       163.392769621    -13079.676384661    -13079.570042905        89.831204167
        51           51.000000         0.241860635       166.390973766    -13079.677057030    -13079.570097415        95.245429368
        52           52.000000         0.253430779       174.350795398    -13079.685026477    -13079.570402106        94.814739692
        53           53.000000         0.267538312       184.056244436    -13079.695336335    -13079.570721310        95.169853696
        54           54.000000         0.278963812       191.916556583    -13079.702618488    -13079.570872588        94.778413705
        55           55.000000         0.284979584       196.055180502    -13079.704258232    -13079.570883597        95.462836522
        56           56.000000         0.285102985       196.140075446    -13079.699925210    -13079.570815855        84.922324644
        57           57.000000         0.280521079       192.987897735    -13079.690754994    -13079.570551393        79.182565975
        58           58.000000         0.274487789       188.837222196    -13079.680308809    -13079.570375236        85.131606433
        59           59.000000         0.269552294       185.441788120    -13079.671223983    -13079.570395939        84.585177079
        60           60.000000         0.265627756       182.741854068    -13079.663133790    -13079.570364788        90.023148313
        61           61.000000         0.262750574       180.762461547    -13079.655963715    -13079.570194443        84.585945136
        62           62.000000         0.262423246       180.537272656    -13079.651362045    -13079.570060458        84.849781643
        63           63.000000         0.265818810       182.873291958    -13079.650536021    -13079.570041233        90.040805762
        64           64.000000         0.272552413       187.505756265    -13079.653045561    -13079.570124906        85.144484685
        65           65.000000         0.281007908       193.322817733    -13079.657133472    -13079.570192418        84.829410686
        66           66.000000         0.290130376       199.598730371    -13079.661593895    -13079.570091601        94.902108680
        67           67.000000         0.301175054       207.197051260    -13079.667789263    -13079.569930216        94.784054871
        68           68.000000         0.315598522       217.119852384    -13079.677600526    -13079.570151564        90.157326831
        69           69.000000         0.330129680       227.116739790    -13079.687619106    -13079.570616439        85.212331708
        70           70.000000         0.338405197       232.809982634    -13079.690988330    -13079.570758847        85.094234671
        71           71.000000         0.337578474       232.241228542    -13079.684944689    -13079.570543213        85.388560861
        72           72.000000         0.329842015       226.918837015    -13079.672012448    -13079.570209590        95.642331039
        73           73.000000         0.319544084       219.834249807    -13079.656776334    -13079.569969137        95.741207078
        74           74.000000         0.310874604       213.869974881    -13079.643266988    -13079.569697688        90.217096487
        75           75.000000         0.307479487       211.534262935    -13079.635191716    -13079.569533839        95.190299976
        76           76.000000         0.310866892       213.864669630    -13079.634187377    -13079.569701187        95.380151244
        77           77.000000         0.318079935       218.826970520    -13079.637081467    -13079.570049877        95.816606298
        78           78.000000         0.323917707       222.843137109    -13079.638242221    -13079.570145298        95.350649793
        79           79.000000         0.326759795       224.798385996    -13079.635864631    -13079.569752928        95.161050102
        80           80.000000         0.330818767       227.590805669    -13079.634696294    -13079.569386065        95.403074700
        81           81.000000         0.340477555       234.235686440    -13079.639558375    -13079.569522640        95.215843479
        82           82.000000         0.353976642       243.522547681    -13079.648371431    -13079.569887526        95.245552169
        83           83.000000         0.365806033       251.660721674    -13079.655272590    -13079.570109503       105.680648405
        84           84.000000         0.371713135       255.724584767    -13079.656068925    -13079.570167635       105.760659868
        85           85.000000         0.370261535       254.725938641    -13079.649375532    -13079.570017634       105.825257411
        86           86.000000         0.363034330       249.753894542    -13079.636957335    -13079.569775385        95.432273095
        87           87.000000         0.353284246       243.046205941    -13079.622150696    -13079.569509332        95.064548005
        88           88.000000         0.344973528       237.328745609    -13079.608834898    -13079.569170907        94.506576382
        89           89.000000         0.342280081       235.475755852    -13079.601457001    -13079.569105141        90.165127405
        90           90.000000         0.345961895       238.008704845    -13079.600807395    -13079.569432235        90.137813911
        91           91.000000         0.351392685       241.744883456    -13079.601828524    -13079.569763622        95.266089702
        92           92.000000         0.353985977       243.528970081    -13079.599482918    -13079.569623407       105.902694465
        93           93.000000         0.354657421       243.990897987    -13079.595075200    -13079.569358752       106.029144038
        94           94.000000         0.356255001       245.089972760    -13079.591858710    -13079.569365479        95.662941964
        95           95.000000         0.359320598       247.198987564    -13079.589984483    -13079.569264954        95.171007157
        96           96.000000         0.365001343       251.107125579    -13079.590591964    -13079.569068592        95.180803107
        97           97.000000         0.374757502       257.818994011    -13079.595581390    -13079.569244606        95.362150319
        98           98.000000         0.385469188       265.188229235    -13079.601688719    -13079.569654477        95.820408972
        99           99.000000         0.390980441       268.979762523    -13079.602292848    -13079.569776939        95.387644116
       100          100.000000         0.388417875       267.216814512    -13079.594571582    -13079.569569854        95.544165012
       101          101.000000         0.380284733       261.621520159    -13079.581166655    -13079.569107333       100.811085103
       102          102.000000         0.373229609       256.767861158    -13079.568938063    -13079.568611194        90.162428549
       103          103.000000         0.374072311       257.347608826    -13079.565056610    -13079.568517413        95.551463812
       104          104.000000         0.384385722       264.442845580    -13079.570952486    -13079.568790911        95.325795921
       105          105.000000         0.400272950       275.372657533    -13079.582369362    -13079.569132562       105.721846909
       106          106.000000         0.415667964       285.963845570    -13079.593241531    -13079.569520470       105.727834916
       107          107.000000         0.424085991       291.755129922    -13079.596950714    -13079.569725479       105.880649915
       108          108.000000         0.422767609       290.848132704    -13079.590366894    -13079.569258746       105.632091273
       109          109.000000         0.417766689       287.407688601    -13079.579960011    -13079.568479096        94.936838200
       110          110.000000         0.419106550       288.329462439    -13079.576575277    -13079.568254119        95.211046425
       111          111.000000         0.429386737       295.401842185    -13079.582976223    -13079.568835446        95.646069370
       112          112.000000         0.440501189       303.048165466    -13079.590281127    -13079.569470296        95.325147562
       113          113.000000         0.442888504       304.690547593    -13079.588357400    -13079.569515398        95.242459537
       114          114.000000         0.434458391       298.890948600    -13079.575376526    -13079.569140120       105.890266825
       115          115.000000         0.419967421       288.921709382    -13079.556459319    -13079.568676083        95.480409709
       116          116.000000         0.406617167       279.737239061    -13079.538903839    -13079.568263466        95.501569259
       117          117.000000         0.400850440       275.769948713    -13079.529242469    -13079.568085660        95.497537986
       118          118.000000         0.405421735       278.914827311    -13079.530218794    -13079.568235370        95.332856476
       119          119.000000         0.417508114       287.229798602    -13079.538978364    -13079.568747632        95.488304894
       120          120.000000         0.428918472       295.079693885    -13079.547047345    -13079.569328588       100.996210382
       121          121.000000         0.431270484       296.697789281    -13079.545468888    -13079.569318106       105.791574887
       122          122.000000         0.424121830       291.779785657    -13079.533935440    -13079.568760257       106.036944463
       123          123.000000         0.415140630       285.601059608    -13079.520631947    -13079.568150650       105.918458978
       124          124.000000         0.413328575       284.354434011    -13079.514915357    -13079.567902372        95.581722820
       125          125.000000         0.421187863       289.761326891    -13079.519728082    -13079.568537190        84.517827077
       126          126.000000         0.429788733       295.678400442    -13079.525394611    -13079.569329694        90.086351261
       127          127.000000         0.428401718       294.724186374    -13079.520105185    -13079.569131702        95.403258140
       128          128.000000         0.418315520       287.785263770    -13079.505621073    -13079.568342904        95.237206290
       129          129.000000         0.408835547       281.263400491    -13079.492392380    -13079.568111436        95.284102658
       130          130.000000         0.403678419       277.715491485    -13079.484029195    -13079.568386800        95.511023495
       131          131.000000         0.400883309       275.792561641    -13079.477533117    -13079.568178492        90.106919587
       132          132.000000         0.402501229       276.905629636    -13079.475307868    -13079.567875188        90.651904963
       133          133.000000         0.410785655       282.605001217    -13079.480412478    -13079.568321443       106.190675067
       134          134.000000         0.420131403       289.034522276    -13079.486458853    -13079.568738071       108.934132338
       135          135.000000         0.425030984       292.405249022    -13079.487313374    -13079.568449081       109.328992788
       136          136.000000         0.428280295       294.640652457    -13079.486401876    -13079.568036503       109.904896227
       137          137.000000         0.435051761       299.299164770    -13079.489444859    -13079.568042120       121.844925319
       138          138.000000         0.445396117       306.415690787    -13079.496405011    -13079.568382584       109.603889789
       139          139.000000         0.453997187       312.332901839    -13079.501755493    -13079.568816686        97.064440991
       140          140.000000         0.454982807       313.010971297    -13079.499047932    -13079.568700354        97.429893970
       141          141.000000         0.449500481       309.239337889    -13079.489533971    -13079.568084654        95.734545249
       142          142.000000         0.444608609       305.873915187    -13079.481163913    -13079.567867877        97.532057809
       143          143.000000         0.443094772       304.832452021    -13079.476670199    -13079.568036435       108.988285150
       144          144.000000         0.442061964       304.121919134    -13079.472539409    -13079.568001358       108.519589771
       145          145.000000         0.441865844       303.986996570    -13079.468960240    -13079.567608742       108.590634600
       146          146.000000         0.446285803       307.027761121    -13079.470537543    -13079.567704537       109.565158805
       147          147.000000         0.453832442       312.219563498    -13079.475634777    -13079.568151607       108.521177361
       148          148.000000         0.459059247       315.815407397    -13079.478059297    -13079.568178783       102.569847188
       149          149.000000         0.461727615       317.651143920    -13079.477538692    -13079.567716477       109.317780679
       150          150.000000         0.467517114       321.634100011    -13079.480516956    -13079.567517955       108.371260334
       151          151.000000         0.479078218       329.587702847    -13079.489938708    -13079.567875851       108.879803378
       152          152.000000         0.491473951       338.115498339    -13079.500551183    -13079.568440276       108.916844197
       153          153.000000         0.497122262       342.001323027    -13079.504132989    -13079.568501478       109.298393960
       154          154.000000         0.494952961       340.508926148    -13079.499530718    -13079.567918789       109.009233923
       155          155.000000         0.491645693       338.233650819    -13079.494274574    -13079.567536313       108.660624987
       156          156.000000         0.491762429       338.313960292    -13079.493324640    -13079.567773407       108.305511999
       157          157.000000         0.492480510       338.807973055    -13079.493273768    -13079.568054857        97.379337107
       158          158.000000         0.490169566       337.218130949    -13079.490008785    -13079.567895700        96.434420266
       159          159.000000         0.486098918       334.417678864    -13079.485179572    -13079.567684858       108.430584737
       160          160.000000         0.483046866       332.317982526    -13079.481866700    -13079.567744125       102.850922560
       161          161.000000         0.482145478       331.697861586    -13079.480912220    -13079.567799765        97.813686921
       162          162.000000         0.482705086       332.082850594    -13079.481787093    -13079.568017710        91.017925323
       163          163.000000         0.482411504       331.880877781    -13079.481971834    -13079.568190918       108.269686495
       164          164.000000         0.480231033       330.380795863    -13079.480105594    -13079.567994897       108.667681518
       165          165.000000         0.478935739       329.489682692    -13079.479415371    -13079.567893847       108.352248605
       166          166.000000         0.479492329       329.872595222    -13079.481306744    -13079.568330286       109.142046886
       167          167.000000         0.476972951       328.139358798    -13079.480105143    -13079.568559535       108.337280450
       168          168.000000         0.468787201       322.507872272    -13079.472731041    -13079.568117651       108.280866765
       169          169.000000         0.459926473       316.412026421    -13079.464852681    -13079.567727810       108.762575834
       170          170.000000         0.455519316       313.380069201    -13079.461925276    -13079.567751127       108.659957600
       171          171.000000         0.455755951       313.542865029    -13079.463828767    -13079.567884157       108.688171314
       172          172.000000         0.458248949       315.257953479    -13079.468153166    -13079.568093975       109.090755410
       173          173.000000         0.459883141       316.382215546    -13079.471621950    -13079.568208112       120.995695087
       174          174.000000         0.459282998       315.969340039    -13079.472716151    -13079.568083241       114.529265508
       175          175.000000         0.458383339       315.350408238    -13079.473562460    -13079.567918969       108.475409889
       176          176.000000         0.460406341       316.742157041    -13079.477476493    -13079.567806691       108.881674562
       177          177.000000         0.467805474       321.832481202    -13079.487026210    -13079.567833160       108.448585401
       178          178.000000         0.480446052       330.528720731    -13079.502318340    -13079.568181639       108.309818293
       179          179.000000         0.492848947       339.061443905    -13079.518041113    -13079.568949969       108.334221625
       180          180.000000         0.495041949       340.570146326    -13079.523439788    -13079.569329258       107.895162389
       181          181.000000         0.482871697       332.197473326    -13079.513697237    -13079.568723709       107.966233680
       182          182.000000         0.464761209       319.738142035    -13079.497830223    -13079.567854971       108.339316253
       183          183.000000         0.452473690       311.284793225    -13079.488503355    -13079.567712950       108.305634851
       184          184.000000         0.448790993       308.751236866    -13079.488296402    -13079.568106541       108.667603708
       185          185.000000         0.448620241       308.633766046    -13079.491530401    -13079.568430464       109.497904358
       186          186.000000         0.446625267       307.261299503    -13079.492771769    -13079.568587247       109.392977540
       187          187.000000         0.440372926       302.959925488    -13079.489493097    -13079.568514369       108.813910010
       188          188.000000         0.431335935       296.742816724    -13079.483152918    -13079.568246588       109.040547209
       189          189.000000         0.423961048       291.669173502    -13079.478410720    -13079.568032265       109.073739382
       190          190.000000         0.422417115       290.607005680    -13079.479554204    -13079.567988441       109.174634224
       191          191.000000         0.428260985       294.627367653    -13079.488234189    -13079.568168290       109.125237661
       192          192.000000         0.438843440       301.907696823    -13079.502029399    -13079.568738492       108.796413253
       193          193.000000         0.446312814       307.046343231    -13079.512769066    -13079.569335515       108.354959318
       194          194.000000         0.443343606       305.003640737    -13079.512364515    -13079.569209403       121.075229093
       195          195.000000         0.431948076       297.163946714    -13079.502901831    -13079.568501383       121.738419398
       196          196.000000         0.421803262       290.184698236    -13079.494787535    -13079.568001804       109.484951349
       197          197.000000         0.419699929       288.737685098    -13079.495306798    -13079.568210664       109.150243298
       198          198.000000         0.423003561       291.010458587    -13079.501485181    -13079.568755638       108.763998259
       199          199.000000         0.424191874       291.827973186    -13079.505207708    -13079.569023591       108.498045825
       200          200.000000         0.419077587       288.309537090    -13079.502146484    -13079.568891492       109.038616841
       201          201.000000         0.409481920       281.708081083    -13079.494253190    -13079.568532701       108.183094139
       202          202.000000         0.400751713       275.702028433    -13079.487156573    -13079.568265950       109.165517217
       203          203.000000         0.397146927       273.222071684    -13079.485318962    -13079.568303088       108.992527314
       204          204.000000         0.399134650       274.589550282    -13079.489032361    -13079.568453697       109.185983618
       205          205.000000         0.405102772       278.695392758    -13079.496602112    -13079.568608107       109.177296402
       206          206.000000         0.412415449       283.726237644    -13079.505623903    -13079.568968314       109.254535364
       207          207.000000         0.416168991       286.308532874    -13079.510968639    -13079.569288629       121.106305377
       208          208.000000         0.412802826       283.992738318    -13079.508535541    -13079.569032564       121.050343657
       209          209.000000         0.405762050       279.148950914    -13079.502060241    -13079.568515406       120.934474736
       210          210.000000         0.401689252       276.347020113    -13079.498853646    -13079.568426723       121.429615691
       211          211.000000         0.402426996       276.854560024    -13079.500618826    -13079.568629669       120.916672318
       212          212.000000         0.405403418       278.902225462    -13079.504466662    -13079.568797760        97.301286930
       213          213.000000         0.407740039       280.509732603    -13079.507492098    -13079.568894214        96.958983515
       214          214.000000         0.407874278       280.602084138    -13079.508076965    -13079.568858402       108.749453183
       215          215.000000         0.406027060       279.331268054    -13079.506549035    -13079.568799220       120.847813333
       216          216.000000         0.403100746       277.318074345    -13079.503868137    -13079.568781403       121.129203414
       217          217.000000         0.400032801       275.207444533    -13079.500835580    -13079.568678464       121.399635814
       218          218.000000         0.398812957       274.368237294    -13079.499471626    -13079.568529993       108.892740828
       219          219.000000         0.401470012       276.196190747    -13079.502074024    -13079.568608596       108.636995423
       220          220.000000         0.406989679       279.993513249    -13079.507603329    -13079.568882848        96.366045349
       221          221.000000         0.411533769       283.119675598    -13079.511983965    -13079.569100089       109.107728865
       222          222.000000         0.411900069       283.371675987    -13079.511844696    -13079.569075439       121.465596971
       223          223.000000         0.408204336       280.829151614    -13079.507371719    -13079.568873550       120.872768854
       224          224.000000         0.403220781       277.400654130    -13079.501519592    -13079.568682499       120.599503309
       225          225.000000         0.400213659       275.331867843    -13079.497512173    -13079.568477597       106.778559875
       226          226.000000         0.401971746       276.541364713    -13079.498318535    -13079.568454502        84.967619737
       227          227.000000         0.408075569       280.740564564    -13079.503716819    -13079.568815932        85.115764314