#     Step Nr.          Time[fs]        Kin.[a.u.]          Temp[K]            Pot.[a.u.]        Cons Qty[a.u.]        UsedTime[s]
         0            0.000000         0.436288508       300.150000000    -13080.044100973    -13079.607337206         0.000000000
         1            1.000000         0.416592410       286.599828937    -13080.024870826    -13079.606546792       176.738931938
         2            2.000000         0.372001182       255.922749959    -13079.979455103    -13079.604641113        63.576185927
         3            3.000000         0.330039141       227.054451968    -13079.936791669    -13079.603182114        62.863258704
         4            4.000000         0.311550640       214.335062534    -13079.918880910    -13079.603374904        63.441632594
         5            5.000000         0.314787834       216.562129836    -13079.923421354    -13079.604658801        53.363585804
         6            6.000000         0.321851954       221.421976839    -13079.931213080    -13079.605725408        52.922926762
         7            7.000000         0.316288241       217.594352989    -13079.925218445    -13079.605979697        60.017990815
         8            8.000000         0.293388305       201.840062731    -13079.900791800    -13079.605457206        60.146908762
         9            9.000000         0.261030577       179.579169105    -13079.866073827    -13079.604386436        56.380682293
        10           10.000000         0.235530154       162.035841614    -13079.837946918    -13079.603322672        57.071856728
        11           11.000000         0.232292762       159.808638457    -13079.832657057    -13079.603171684        53.104383694
        12           12.000000         0.253158044       174.163163763    -13079.852275305    -13079.604319005        52.966973340
        13           13.000000         0.281718834       193.811907737    -13079.879458834    -13079.605926338        53.173524251
        14           14.000000         0.294767281       202.788746216    -13079.889844197    -13079.606681516        57.176501736
        15           15.000000         0.280830420       193.200712589    -13079.871725233    -13079.605968656        56.776521617
        16           16.000000         0.249577549       171.699918788    -13079.835656875    -13079.604329622        63.369308057
        17           17.000000         0.223963226       154.078232881    -13079.806101826    -13079.603186202        63.293440262
        18           18.000000         0.220329795       151.578569690    -13079.800198570    -13079.603492530        63.335898528
        19           19.000000         0.235306957       161.882290722    -13079.813750479    -13079.604633014        63.474672438
        20           20.000000         0.252736799       173.873363205    -13079.829362909    -13079.605453446        52.875818595
        21           21.000000         0.259505425       178.529921784    -13079.833509359    -13079.605482310        53.338523044
        22           22.000000         0.253893453       174.669097376    -13079.824731802    -13079.604893779        56.406375779
        23           23.000000         0.244099989       167.931564383    -13079.811668935    -13079.604109648        63.202127862
        24           24.000000         0.241742159       166.309466789    -13079.806351087    -13079.603622131        59.878657977
        25           25.000000         0.253967396       174.719967457    -13079.816174979    -13079.603829012        63.352382625
        26           26.000000         0.277604763       190.981582198    -13079.837787379    -13079.604689234        63.408759300
        27           27.000000         0.300032433       206.410971600    -13079.857929154    -13079.605598034        56.425282547
        28           28.000000         0.307821785       211.769751041    -13079.862592651    -13079.605860491        56.375941451
        29           29.000000         0.296813385       204.196387818    -13079.847583751    -13079.605255411        57.039868413
        30           30.000000         0.275458099       189.504758917    -13079.821929721    -13079.604231652        53.431444534
        31           31.000000         0.258131107       177.584442916    -13079.800878626    -13079.603668541        52.890433908
        32           32.000000         0.253031108       174.075836920    -13079.792905665    -13079.603957563        56.504156000
        33           33.000000         0.256780032       176.654954406    -13079.793946854    -13079.604533586        59.884109889
        34           34.000000         0.261035874       179.582813199    -13079.795005148    -13079.604776024        63.155553496
        35           35.000000         0.261241208       179.724075241    -13079.791490398    -13079.604601603        60.039216059
        36           36.000000         0.258968543       178.160567484    -13079.785261735    -13079.604234145        59.992815261
        37           37.000000         0.259171932       178.300491716    -13079.781544474    -13079.603933702        52.818595683
        38           38.000000         0.266156489       183.105602412    -13079.784785085    -13079.603893482        53.143128758
        39           39.000000         0.280439189       192.931560114    -13079.795479145    -13079.604168323        59.650619549
        40           40.000000         0.297809445       204.881639409    -13079.809237001    -13079.604617241        59.820640084
        41           41.000000         0.311385226       214.221263973    -13079.818949303    -13079.604969499        56.743794473
        42           42.000000         0.315614807       217.131055732    -13079.818958750    -13079.605006474        53.190369425
        43           43.000000         0.309738489       213.088370875    -13079.808571419    -13079.604672048        52.891921336
        44           44.000000         0.298469277       205.335579381    -13079.792790607    -13079.604191679        52.938624401
        45           45.000000         0.288459061       198.448928999    -13079.778676246    -13079.603991451        53.147870434
        46           46.000000         0.282505539       194.353131052    -13079.769067470    -13079.604180137        63.310084127
        47           47.000000         0.278143233       191.352029401    -13079.761035034    -13079.604346312        63.192509621
        48           48.000000         0.272634412       187.562168493    -13079.751565003    -13079.604221434        52.880010614
        49           49.000000         0.266758458       183.519734225    -13079.741638288    -13079.603998534        56.192762777
        50           50.000000         0.263106707       181.007467651    -13079.734033795    -13079.603877684        62.998565050
        51           51.000000         0.263413642       181.218627655    -13079.730426770    -13079.603837783        62.921558117
        52           52.000000         0.268200710       184.511949187    -13079.731264912    -13079.603853176        62.999763830
        53           53.000000         0.276805649       190.431822441    -13079.735926369    -13079.604004982        70.384603890
        54           54.000000         0.286492442       197.095969681    -13079.741662617    -13079.604291423        70.179930490
        55           55.000000         0.292721693       201.381458361    -13079.743785107    -13079.604521586        62.871562028
        56           56.000000         0.291931387       200.837758249    -13079.738550477    -13079.604425603        63.239707444
        57           57.000000         0.284989294       196.061860228    -13079.726923842    -13079.604013691        59.943577756
        58           58.000000         0.277403942       190.843425091    -13079.714779518    -13079.603625842        52.874427502
        59           59.000000         0.274322065       188.723210406    -13079.707603624    -13079.603651448        52.466963875
        60           60.000000         0.275570669       189.582202796    -13079.704993541    -13079.603934188        62.922482215
        61           61.000000         0.277457712       190.880416826    -13079.702775518    -13079.604025599        62.864368049
        62           62.000000         0.278153980       191.359423192    -13079.699053157    -13079.603847641        56.367852941
        63           63.000000         0.279285026       192.137539637    -13079.695676936    -13079.603615019        63.128339498
        64           64.000000         0.283618932       195.119103040    -13079.695555117    -13079.603490610        63.112260820
        65           65.000000         0.292674830       201.349218974    -13079.700184016    -13079.603500828        63.139496149
        66           66.000000         0.306051773       210.552049493    -13079.709070989    -13079.603601700        63.142643569
        67           67.000000         0.321700845       221.318019979    -13079.720157182    -13079.603802279        63.061113773
        68           68.000000         0.335957040       231.125742955    -13079.729778722    -13079.604074824        63.126476903
        69           69.000000         0.344166709       236.773684857    -13079.733230122    -13079.604284733        63.081435526
        70           70.000000         0.342972945       235.952420080    -13079.727028552    -13079.604190019        63.423537951
        71           71.000000         0.333733155       229.595794257    -13079.712528246    -13079.603691105        63.880825189
        72           72.000000         0.323257553       222.388975867    -13079.696955490    -13079.603186395        63.305199573
        73           73.000000         0.318329303       218.998526407    -13079.687518090    -13079.603172145        63.239490659
        74           74.000000         0.319328832       219.686164720    -13079.684381519    -13079.603532342        63.335120188
        75           75.000000         0.321235911       220.998162442    -13079.681993908    -13079.603782381        60.369202577
        76           76.000000         0.319776538       219.994169209    -13079.675902825    -13079.603720664        60.139447667
        77           77.000000         0.314894233       216.635328101    -13079.666198043    -13079.603446658        63.186590283
        78           78.000000         0.310025077       213.285532748    -13079.656474279    -13079.603103341        63.134546931
        79           79.000000         0.309858179       213.170713480    -13079.651523046    -13079.602833659        60.488950668
        80           80.000000         0.317500784       218.428536696    -13079.654615661    -13079.602886183        59.879498426
        81           81.000000         0.331573774       228.110221721    -13079.664327680    -13079.603294060        63.559481889
        82           82.000000         0.345545606       237.722313899    -13079.673874344    -13079.603809339        63.274480265
        83           83.000000         0.351354859       241.718859998    -13079.674890090    -13079.604030608        63.335295480
        84           84.000000         0.345408889       237.628257927    -13079.663659154    -13079.603684880        63.027890220
        85           85.000000         0.332513635       228.756810765    -13079.645237908    -13079.602921619        62.816172090
        86           86.000000         0.323140317       222.308322068    -13079.630781650    -13079.602447317        63.695319578
        87           87.000000         0.323898630       222.830012849    -13079.627229449    -13079.602715993        59.942746956
        88           88.000000         0.331731760       228.218909977    -13079.630894604    -13079.603217131        59.828898043
        89           89.000000         0.339526466       233.581373448    -13079.634068763    -13079.603383184        56.411444796
        90           90.000000         0.343560865       236.356886776    -13079.633173139    -13079.603307521        63.171305713
        91           91.000000         0.343872691       236.571411567    -13079.628464553    -13079.603145889        63.625982443
        92           92.000000         0.342784229       235.822591018    -13079.622172300    -13079.602771715        63.098783628
        93           93.000000         0.345493536       237.686491771    -13079.619610074    -13079.602323666        63.254021486
        94           94.000000         0.357420594       245.891856852    -13079.626637422    -13079.602325742        63.398421841
        95           95.000000         0.377585445       259.764511614    -13079.642328552    -13079.602918644        63.475374510
        96           96.000000         0.396985522       273.111031382    -13079.657163739    -13079.603575525        63.497964360
        97           97.000000         0.405797294       279.173197139    -13079.660849992    -13079.603693860        64.047181259
        98           98.000000         0.401369051       276.126733719    -13079.650881838    -13079.603251798        70.318619344
        99           99.000000         0.389687955       268.090581437    -13079.633639373    -13079.602553512        70.415319853
       100          100.000000         0.380983386       262.102166696    -13079.619782597    -13079.602065931        70.615304206
       101          101.000000         0.382125918       262.888185377    -13079.616568335    -13079.602296518        63.701739752
       102          102.000000         0.390188371       268.434848641    -13079.620704842    -13079.602987159        56.475302219
       103          103.000000         0.396166093       272.547295062    -13079.622261330    -13079.603221424        56.198969144
       104          104.000000         0.395898981       272.363532244    -13079.617065284    -13079.602923625        63.086998139
       105          105.000000         0.392130511       269.770967627    -13079.608484031    -13079.602667421        63.097153896
       106          106.000000         0.388548088       267.306395864    -13079.600234009    -13079.602481613        63.431129265
       107          107.000000         0.388092405       266.992902972    -13079.595104563    -13079.602250484        63.102371593
       108          108.000000         0.393193766       270.502446322    -13079.595769075    -13079.602270347        63.231889503
       109          109.000000         0.402641115       277.001865286    -13079.601047612    -13079.602612895        63.140072436
       110          110.000000         0.410900947       282.684318059    -13079.605069037    -13079.602928370        63.232730054
       111          111.000000         0.412826682       284.009150490    -13079.602396001    -13079.602859475        62.996187054
       112          112.000000         0.408727838       281.189300645    -13079.593421250    -13079.602421295        69.632771567
       113          113.000000         0.403970337       277.916320187    -13079.584022702    -13079.602111480        69.962391010
       114          114.000000         0.402636640       276.998787058    -13079.578538193    -13079.602223472        70.293266989
       115          115.000000         0.403806626       277.803693134    -13079.575640441    -13079.602391907        69.894918671
       116          116.000000         0.405294477       278.827278537    -13079.572871006    -13079.602359201        66.577031823
       117          117.000000         0.407193032       280.133412273    -13079.570448658    -13079.602252398        63.008129713
       118          118.000000         0.410792879       282.609970762    -13079.569786011    -13079.602199428        63.182377047
       119          119.000000         0.416364651       286.443139438    -13079.571214954    -13079.602269359        63.332291619
       120          120.000000         0.422782859       290.858624334    -13079.573472936    -13079.602321584        70.205308189
       121          121.000000         0.428628546       294.880235689    -13079.575170781    -13079.602366569        70.724801716
       122          122.000000         0.432494240       297.539686715    -13079.574921324    -13079.602394499        70.424780156
       123          123.000000         0.433354564       298.131557559    -13079.571660708    -13079.602334492        70.405973514
       124          124.000000         0.431325957       296.735952351    -13079.565556165    -13079.602214223        66.946695680
       125          125.000000         0.427932444       294.401343633    -13079.558058315    -13079.601956752        56.715147741
       126          126.000000         0.426140043       293.168239864    -13079.552374147    -13079.601823773        56.515827155
       127          127.000000         0.427007674       293.765137237    -13079.549762694    -13079.602046642        63.611197975
       128          128.000000         0.427603696       294.175177800    -13079.546871049    -13079.602217033        70.640518136
       129          129.000000         0.425155057       292.490606874    -13079.540803536    -13079.602201147        70.022176708
       130          130.000000         0.419748922       288.771389892    -13079.531704784    -13079.602044462        70.672178836
       131          131.000000         0.414388802       285.083830321    -13079.522500142    -13079.601679124        67.049352888
       132          132.000000         0.414584371       285.218374195    -13079.518960721    -13079.601409258        63.880448756
       133          133.000000         0.423831172       291.579823739    -13079.524944928    -13079.601656515        53.032119093
       134          134.000000         0.438578138       301.725178694    -13079.536688431    -13079.602233723        56.787091400
       135          135.000000         0.450259202       309.761309237    -13079.545213983    -13079.602683866        63.466681339
       136          136.000000         0.452003309       310.961189102    -13079.543337562    -13079.602597057        66.967747468
       137          137.000000         0.444482067       305.786859079    -13079.531821855    -13079.601986626        63.412298611
       138          138.000000         0.435388639       299.530924366    -13079.518930433    -13079.601417724        63.449513291
       139          139.000000         0.432334409       297.429729141    -13079.512591635    -13079.601264193        64.124135224
       140          140.000000         0.436715478       300.443739376    -13079.514248603    -13079.601637511        63.476677900
       141          141.000000         0.442954899       304.736224930    -13079.517805749    -13079.602039467        63.349039290
       142          142.000000         0.444736183       305.961680977    -13079.516577103    -13079.602070944        63.596534479
       143          143.000000         0.440754366       303.222341433    -13079.509387247    -13079.601822493        63.158670309
       144          144.000000         0.434630133       299.009100818    -13079.500011888    -13079.601440899        63.406827678
       145          145.000000         0.432282545       297.394049005    -13079.494612057    -13079.601198612        63.488587370
       146          146.000000         0.437320562       300.860013969    -13079.497094573    -13079.601439211        63.217708767
       147          147.000000         0.447281329       307.712645338    -13079.504612493    -13079.601799705        63.064236277
       148          148.000000         0.457553017       314.779178460    -13079.512160156    -13079.601863719        63.282597097
       149          149.000000         0.465675073       320.366845718    -13079.517721194    -13079.602026606        63.398408372
       150          150.000000         0.468511892       322.318469757    -13079.518181024    -13079.602254064        63.343416863
       151          151.000000         0.462756692       318.359110225    -13079.509855975    -13079.602123137        63.550554210
       152          152.000000         0.450296662       309.787080627    -13079.494498032    -13079.601489257        70.359101057
       153          153.000000         0.439371490       302.270974797    -13079.480889587    -13079.600938042        70.245699845
       154          154.000000         0.436675899       300.416510135    -13079.476272710    -13079.601086435        63.452447394
       155          155.000000         0.440107991       302.777659683    -13079.478117803    -13079.601554524        63.371324672
       156          156.000000         0.442583654       304.480822140    -13079.478835454    -13079.601839494        63.310389438
       157          157.000000         0.439736497       302.522086241    -13079.473775459    -13079.601635709        63.400444708
       158          158.000000         0.434413624       298.860150626    -13079.465924144    -13079.601075628        63.677573025
       159          159.000000         0.434109204       298.650721489    -13079.463470014    -13079.600877746        63.585254348
       160          160.000000         0.441605574       303.807940727    -13079.469504852    -13079.601380382        63.799214458
       161          161.000000         0.451713401       310.761743230    -13079.477914978    -13079.601654270        60.290631345
       162          162.000000         0.461260000       317.329442687    -13079.485201677    -13079.601336031        63.554380534
       163          163.000000         0.472355511       324.962734422    -13079.494656716    -13079.601564643        63.130955908
       164          164.000000         0.481164656       331.023093040    -13079.502462946    -13079.602306435        63.182338631
       165          165.000000         0.479258164       329.711499001    -13079.498765284    -13079.602074999        63.278737063
       166          166.000000         0.469558182       323.038277934    -13079.486665227    -13079.601028923        63.378896450
       167          167.000000         0.464392645       319.484583942    -13079.480037936    -13079.600752139        63.302549209
       168          168.000000         0.468214854       322.114119098    -13079.483190311    -13079.601138827        63.567272749
       169          169.000000         0.476244722       327.638364873    -13079.490582754    -13079.601429683        63.689601321
       170          170.000000         0.483398747       332.560063774    -13079.497105993    -13079.601565842        63.639796497
       171          171.000000         0.487241078       335.203442199    -13079.500366603    -13079.601551046        63.437251355
       172          172.000000         0.488239235       335.890135931    -13079.500836241    -13079.601364639        63.339729497
       173          173.000000         0.489216225       336.562268317    -13079.501634738    -13079.601294136        63.880710209
       174          174.000000         0.492030411       338.498321926    -13079.504703793    -13079.601415426        63.404596120
       175          175.000000         0.496496586       341.570881238    -13079.509452449    -13079.601305961        63.540155832
       176          176.000000         0.504266504       346.916291534    -13079.517756873    -13079.601160412        63.796004652
       177          177.000000         0.515257427       354.477631168    -13079.530469050    -13079.601862762        63.543836599
       178          178.000000         0.519996817       357.738152000    -13079.537329374    -13079.602571321        63.601323589
       179          179.000000         0.510356429       351.105929751    -13079.528864902    -13079.601949188        63.600039496
       180          180.000000         0.493684013       339.635937842    -13079.513348771    -13079.601012758        63.603762420
       181          181.000000         0.481981429       331.585002219    -13079.503902388    -13079.600975595        56.815929365
       182          182.000000         0.477020936       328.172370787    -13079.501826205    -13079.601405893        63.339805024
       183          183.000000         0.473486945       325.741118256    -13079.501173110    -13079.601686473        63.548348650
       184          184.000000         0.467729171       321.779987416    -13079.498048031    -13079.601600514        63.436314874
       185          185.000000         0.461063084       317.193971732    -13079.493975166    -13079.601398150        63.165459622
       186          186.000000         0.456852228       314.297061939    -13079.492567063    -13079.601357678        63.184608120
       187          187.000000         0.456573940       314.105610063    -13079.495336275    -13079.601516918        63.095542093
       188          188.000000         0.459042020       315.803555741    -13079.500915953    -13079.601679509        63.175134501
       189          189.000000         0.462634882       318.275309517    -13079.507599093    -13079.601740605        63.133594791
       190          190.000000         0.466021421       320.605120093    -13079.514342715    -13079.601973058        63.799290553
       191          191.000000         0.466021248       320.605001291    -13079.517804091    -13079.602216748        63.503050835
       192          192.000000         0.459739192       316.283184041    -13079.514674714    -13079.602097757        63.476315238
       193          193.000000         0.448826080       308.775375713    -13079.506644179    -13079.601724783        70.004676756
       194          194.000000         0.438527370       301.690252719    -13079.499156448    -13079.601357563        63.180540399
       195          195.000000         0.433937181       298.532376091    -13079.497530144    -13079.601238120        63.224416696
       196          196.000000         0.436193718       300.084787752    -13079.503168264    -13079.601603343        56.800526445
       197          197.000000         0.440216932       302.852607483    -13079.510755654    -13079.602180086        56.349809813
       198          198.000000         0.438659902       301.781429273    -13079.512377860    -13079.602399708        63.304722421
       199          199.000000         0.429406059       295.415135351    -13079.505631231    -13079.602024974        63.275952652
       200          200.000000         0.418875645       288.170608547    -13079.497133846    -13079.601313086        63.466780663
       201          201.000000         0.417551984       287.259979823    -13079.498125652    -13079.601025270        63.391650518
       202          202.000000         0.429206374       295.277759702    -13079.513019801    -13079.601733565        63.272640881
       203          203.000000         0.444625976       305.885862865    -13079.531948873    -13079.602691015        63.316309461
       204          204.000000         0.451214606       310.418591167    -13079.541290595    -13079.602829640        63.505454374
       205          205.000000         0.445836256       306.718489700    -13079.538216744    -13079.602491355        70.467437176
       206          206.000000         0.432453348       297.511554771    -13079.527241838    -13079.602307078        70.517061899
       207          207.000000         0.414991779       285.498655783    -13079.511940637    -13079.602011589        70.927791689
       208          208.000000         0.398982010       274.484539718    -13079.497562659    -13079.601389916        70.646397005
       209          209.000000         0.392878327       270.285436597    -13079.493165092    -13079.601058852        63.459224462
       210          210.000000         0.400276663       275.375212325    -13079.502993945    -13079.601621351        63.545427779
       211          211.000000         0.413094387       284.193321343    -13079.518580857    -13079.602622963        63.551349410
       212          212.000000         0.417849942       287.464963835    -13079.525476868    -13079.603062090        63.971568021
       213          213.000000         0.409362774       281.626112833    -13079.517988468    -13079.602452796        63.502979089
       214          214.000000         0.397004002       273.123744927    -13079.506029310    -13079.601393720        63.900479916
       215          215.000000         0.394880065       271.662556905    -13079.505099600    -13079.601299956        63.612890234
       216          216.000000         0.405384493       278.889205844    -13079.517523556    -13079.602069030        63.659791378
       217          217.000000         0.419312358       288.471050445    -13079.532971548    -13079.602521483        63.700010297
       218          218.000000         0.429522143       295.494997006    -13079.544143734    -13079.602453762        63.445259461
       219          219.000000         0.434877140       299.179032031    -13079.550552970    -13079.602488131        67.346605576
       220          220.000000         0.434045526       298.606913480    -13079.550938458    -13079.602688035        70.551967657
       221          221.000000         0.424958957       292.355697532    -13079.542609610    -13079.602452099        70.983943768
       222          222.000000         0.411621729       283.180188607    -13079.529404090    -13079.601660688        70.550275159
       223          223.000000         0.404501101       278.281465979    -13079.522644353    -13079.601210167        63.797459245
       224          224.000000         0.409214314       281.523977876    -13079.528581160    -13079.601738089        63.624240702
       225          225.000000         0.419137644       288.350853747    -13079.539920130    -13079.602545654        63.533701022
       226          226.000000         0.423885636       291.617292904    -13079.545373464    -13079.602700036        63.948584095
       227          227.000000         0.420676159       289.409293832    -13079.542373058    -13079.602407959        63.873661602